108
Density: 0.8, Temperature: 1, Steps: 10000
s0	5.129207820599343	5.129624910343702	5.1294920675287345	
s1	0.00018218884359112747	0.641791133722015	0.6414214565820411	
s2	0.6398153974137495	0.6426467282475951	5.1291345611219885	
s3	0.6413431992230951	0.0016282768107359008	0.6401550876902946	
s4	5.129660695487115	5.129305729623482	1.2818325632371808	
s5	5.129180459049731	0.639807683400358	1.9224704073652872	
s6	0.6415350831942048	0.6428557512548629	1.2840368275604508	
s7	0.63981284751463	5.128590759035695	1.922307378675099	
s8	0.001605500954344095	5.129572902544377	2.563829211546787	
s9	5.128152796628954	0.642794486377289	3.2066377303964075	
s10	0.6407043056905478	0.6398080499756866	2.5634855319335688	
s11	0.640680696959273	0.0014149006553326334	3.20752078850001	
s12	0.0004951648426897536	5.128145515522505	3.845807428502161	
s13	5.129317430655455	0.6416139061281589	4.490291911323651	
s14	0.6426708457953043	0.6415496336317721	3.847802228376766	
s15	0.6425299037572134	5.128366797752951	4.488585447776939	
s16	5.128975329320372	1.283901829047235	5.1290242866185025	
s17	5.128433413879435	1.924037302184603	0.6421923665134661	
s18	0.642765415931857	1.9237533271439444	5.129848501080316	
s19	0.642378731450255	1.2812897110934918	0.6396553784660864	
s20	0.0005325478674324355	1.2809806708265052	1.2827635690931132	
s21	0.00010113482086911945	1.9251517959876503	1.9237229119650714	
s22	0.6418586306416432	1.9222665980771882	1.2823047467635627	
s23	0.6426062151570016	1.283369640026647	1.922403002393539	
s24	0.0002981224929543352	1.282017058086343	2.565867465912767	
s25	0.0006068953323031651	1.924680109732865	3.2054440345558963	
s26	0.6425706673036528	1.9241476908203785	2.5660278193197996	
s27	0.640087870582832	1.2825086940817305	3.205329285679025	
s28	5.129814672887276	1.2829154944341497	3.846909044616738	
s29	0.0003283679541679571	1.9220407927078347	4.489120939028533	
s30	0.6398997312647375	1.9224041206395441	3.8461784020520877	
s31	0.6409049277477032	1.2833288152922497	4.489404579787441	
s32	5.129472051384012	2.563121914506361	0.0002274662327389092	
s33	0.0005010544254827477	3.2060858559783902	0.6423975599026137	
s34	0.6413674172434812	3.206701917203857	0.0015832778147172146	
s35	0.6409192951050643	2.5652649377100025	0.6411374019095237	
s36	5.129011110399287	2.563609972697783	1.2827920238962254	
s37	3.129885162654518e-06	3.2048756596762873	1.9238224747338948	
s38	0.6427447380650082	3.205163941139744	1.2821190495380796	
s39	0.6403885520476273	2.564404314609705	1.9246672601178265	
s40	5.129690247072866	2.5662683832180524	2.5664043809251105	
s41	0.0006164803722972673	3.20523795143679	3.2046799004589985	
s42	0.642575667500651	3.2067578764288296	2.5636750534427555	
s43	0.641955085534996	2.5632592246107415	3.2073686823855616	
s44	0.0010877619568857527	2.565825781309697	3.847563089167952	
s45	0.0010736967719445197	3.2068133272475396	4.488672926842185	
s46	0.6404965557517219	3.2053317843579943	3.847197987883408	
s47	0.6410320614287264	2.5658965223851236	4.488061973668758	
s48	0.0005224758937553289	3.8486692077752815	0.0007700673597274203	
s49	0.0004134909131495879	4.4894072913063345	0.6403879788353749	
s50	0.641871149238177	4.487831137806534	5.129371228574784	
s51	0.6395415692478037	3.8472956898579076	0.6397341060580957	
s52	5.129682921464429	3.84775431723221	1.2836264785828155	
s53	0.0013399119153401854	4.48908272844616	1.9236809399760066	
s54	0.640292726947166	4.488208868310545	1.2809050306212353	
s55	0.6425187942630948	3.8465006986986365	1.9245583430641495	
s56	5.129602652960998	3.84845008886629	2.564673284187762	
s57	5.129228533967243	4.489354892827254	3.20744474707465	
s58	0.6423196272777442	4.488599311593279	2.5637720020156873	
s59	0.6395709192443378	3.8482142425993695	3.2056470235854864	
s60	0.0013004526803421137	3.8466718778469575	3.846672947202679	
s61	0.001032491443965162	4.487800841162846	4.487509394888907	
s62	0.6400397763358089	4.489911913265478	3.847412618467226	
s63	0.6404588513420136	3.848629974720286	4.489101823121866	
s64	1.2826216355827968	5.128162319909269	0.0007222166946267054	
s65	1.2823506472659822	0.6402572090501629	0.6412795616441959	
s66	1.9231441076210511	0.6417825384477274	0.00097767846217042	
s67	1.9236597243215605	0.0011728441979422047	0.6424410546877004	
s68	1.282040095729392	0.0010405601850800338	1.2841031800486793	
s69	1.2807802912779647	0.6415034488552087	1.924690246653699	
s70	1.9252576501013976	0.6415262239264503	1.2836072812038055	
s71	1.9231044040216214	5.12824452559399	1.9247340149263814	
s72	1.2829414685362932	5.129591137978538	2.565228825857564	
s73	1.281639717088107	0.6411877697495021	3.2057220852083117	
s74	1.9219954021657546	0.6407726824849959	2.5658280225369987	
s75	1.9224438738524952	0.0006178436636755148	3.2046178182130656	
s76	1.2823667660529245	5.129675700506367	3.848363492575045	
s77	1.2831669763824431	0.6426461696634791	4.489414000707741	
s78	1.9247513746597276	0.6409056906435351	3.8487300947460557	
s79	1.9242601080610566	0.0012989370176387678	4.488663157236758	
s80	1.2835152621679586	1.2836797412974925	5.129673288453187	
s81	1.282880952843301	1.924197972445178	0.6412345119049	
s82	1.9232461468783717	1.9222692067855047	5.128264551844882	
s83	1.9227147069310362	1.2809074222971115	0.6413468156308627	
s84	1.2811849640723616	1.282668802911153	1.2842224398469289	
s85	1.2816471182217155	1.9238806850465267	1.9239564921851324	
s86	1.9246301251966633	1.923200249898023	1.28241166898266	
s87	1.9234680095333618	1.2828807923707954	1.9248881014981802	
s88	1.2822174074246944	1.283764177124685	2.5662621487768487	
s89	1.2823146186858643	1.9235745821644061	3.2052349436718037	
s90	1.9231856839212023	1.92476341475605	2.5654016058347344	
s91	1.9236397319879628	1.284040333187036	3.207397824473888	
s92	1.2807469242449714	1.2824886566091132	3.8459648873302124	
s93	1.2836911840206595	1.9239789019594946	4.489396438348513	
s94	1.922596869437099	1.9223720630049959	3.8472888886102345	
s95	1.9245907755395164	1.2821110398456612	4.488919061085022	
s96	1.28287074907443	2.5663683711309786	5.129121815024793	
s97	1.2835044483676117	3.205313681557687	0.6424876858743989	
s98	1.9250509238575872	3.204673388219541	5.129848758615163	
s99	1.9231771210148194	2.5651721562496195	0.6401496149819852	
s100	1.2838301078934407	2.5656376346959577	1.2809754514460583	
s101	1.282998964669298	3.204359816240635	1.9242001475754718	
s102	1.9220085030088199	3.204816903604701	1.2811913422004861	
s103	1.9220969834526207	2.563159409105081	1.9220143997674355	
s104	1.281653878199185	2.56618747731697	2.565570533229538	
s105	1.2837390381937266	3.207827315020842	3.207734885373136	
s106	1.924902037517313	3.2073181917850135	2.565276393819383	
s107	1.924988434140772	2.5665120240129675	3.2054038765785196	
s0	4.8550960424359255	5.111846655915497	5.100463924196458	
s1	4.87378172294623	0.6373859395983331	0.6201186995293533	
s2	0.5753315864436249	0.6076630198647628	5.093285311570735	
s3	0.6044530056867858	5.0917028256008106	0.6213772810375963	
s4	4.862245293244982	5.116691084471931	1.2562262434148375	
s5	4.816494081730563	0.6060925383789738	1.9192004443769497	
s6	0.572549866564142	0.6152932030997065	1.286567447715403	
s7	0.6187602795344151	5.050416677509195	1.901291423315336	
s8	4.917034443100678	5.10501391168038	2.575056627921371	
s9	4.789477760937045	0.6251257891661051	3.2013784868275432	
s10	0.5533253240240144	0.6007463189408602	2.5435580601764793	
s11	0.6092444939428935	5.082383011513318	3.2014505701844653	
s12	4.887366434296032	0.018856322967329548	3.867169780681303	
s13	4.84158523018029	0.652612228343062	4.4801368097291965	
s14	0.5586885946314778	0.6116947483111773	3.8904261778654896	
s15	0.6592912069120007	5.067780216695494	4.50935692811327	
s16	4.814029607172988	1.2986974212935085	0.01695683615002771	
s17	4.829560595762595	1.9050313364785125	0.6611587337090963	
s18	0.592957456614973	1.9706594588102166	5.1128780377632195	
s19	0.5763576693982577	1.2772748593594214	0.6280089972645237	
s20	4.864308089586982	1.2843418389011823	1.3050491844712924	
s21	4.848213803439223	1.9233638689609849	1.9491613175660583	
s22	0.5549447187563312	1.9317427763375048	1.254776917079444	
s23	0.5390733809180998	1.3005030225670333	1.9632928762149016	
s24	4.852531474686046	1.2717602902586849	2.5396921306009443	
s25	4.8493153771415685	1.9336764041785939	3.214133665743946	
s26	0.5590946864791917	1.9650115988238757	2.5989552064212385	
s27	0.534215081313233	1.2457162455497384	3.1991012329261355	
s28	4.848087256186088	1.2860485741836607	3.8432265348593018	
s29	4.863489850220843	1.9429466503210056	4.459095173391112	
s30	0.5760471643303524	1.933813148165743	3.853447861758389	
s31	0.5821652894571587	1.3084056473037176	4.491300624440539	
s32	4.865466849273159	2.5595073437641047	5.122293246006423	
s33	4.885188123918406	3.203242406149247	0.6470601683457181	
s34	0.6608883595679845	3.253059659414792	5.093321771604166	
s35	0.5851716666325407	2.6003671172775076	0.6223092840845903	
s36	4.833153157148396	2.5644934727662374	1.2880969649836893	
s37	4.892927517582054	3.2082175340239805	1.9232078853760237	
s38	0.6303841060688268	3.2492189272485184	1.2922412694583703	
s39	0.5811275475756096	2.5904381770711007	1.9173239681419598	
s40	4.868782553110388	2.5664595424218115	2.5587271741954436	
s41	4.922126208161475	3.2282348146696163	3.1965426085250903	
s42	0.6542840301187068	3.2683778659619644	2.5927332359027306	
s43	0.6523828540057832	2.641669067009727	3.2527964232113433	
s44	4.8785840925329715	2.5961148943339376	3.858200240803865	
s45	4.922764275631799	3.231088181766291	4.522756497978835	
s46	0.7463868013835309	3.2693421361637665	3.8613127613207157	
s47	0.6469733227829252	2.604077001009781	4.458016490934228	
s48	4.873540339073491	3.8535530396091064	0.016294805786277643	
s49	4.897328297957318	4.4827698457906795	0.6402449707059455	
s50	0.7351123435526655	4.4157108621170105	5.125684157656428	
s51	0.6858919791751082	3.8372472842550494	0.6370825906270909	
s52	4.8815893858883435	3.844451076518554	1.2825075615378931	
s53	4.912311182006844	4.485854430072304	1.9048420226418503	
s54	0.7362156235136987	4.446148859835618	1.2416413600400071	
s55	0.7748296942931431	3.900531294051546	1.8833625567623236	
s56	4.874976834798842	3.860301314273234	2.551006748529883	
s57	4.8459595068147046	4.477945721370313	3.2018690210818903	
s58	0.7294478343665045	4.422136705882645	2.5618932940555386	
s59	0.7123979304895683	3.865340126652116	3.2140447845374496	
s60	4.938548208736931	3.8229616976814906	3.8292484125605384	
s61	4.912984369774428	4.457142673040136	4.463923578624864	
s62	0.7233767931410532	4.4336955637492474	3.847602273320015	
s63	0.8750182574862011	3.8388453851302637	4.467695571140125	
s64	1.491360438413082	4.969842956374891	0.01907931930878338	
s65	1.3697686432052048	0.6025713677660023	0.6417474435392546	
s66	2.1845631459446717	0.5751450777856608	0.016007075034233174	
s67	2.15364497344057	4.959634638348897	0.7033486053972219	
s68	1.4270211564034467	5.009703203023001	1.3025953002888402	
s69	1.377020577443769	0.605289734630692	1.948959979180093	
s70	2.2310965950276356	0.5940428176125065	1.3610112770112222	
s71	2.1414232798800317	4.867974250319729	1.9580505078240829	
s72	1.422870585265695	5.013740881825548	2.567292123850459	
s73	1.3558440212831664	0.5937078424604529	3.21187440063745	
s74	2.154385097897616	0.6029406963310439	2.5859532220854455	
s75	2.1383875698645176	4.922955102415184	3.2063196769482163	
s76	1.460028128670233	4.992842533976931	3.8593216904571412	
s77	1.3851306708704625	0.6046994673350613	4.503846955422327	
s78	2.2065809334066073	0.5735245680194854	3.829227902717512	
s79	2.181688021012086	4.961555234878718	4.514567659177189	
s80	1.384330224524047	1.3073321742769064	5.108028670961252	
s81	1.385332234542757	1.9425904120904485	0.612339143903789	
s82	2.222058743865049	1.9851588747724818	5.0444479264795765	
s83	2.168769295501453	1.262668554417794	0.6435739028501639	
s84	1.3940566729135593	1.273781416759061	1.280759344153357	
s85	1.3564406677107164	1.9493896174030403	1.9373872786199018	
s86	2.234755729450949	1.9003527611381883	1.262032484919275	
s87	2.1870515095689846	1.3073170871978608	1.9788226515251253	
s88	1.3526606574581295	1.297469769243945	2.5895021249924306	
s89	1.4010886811160939	1.9879334046115693	3.2737414984997413	
s90	2.1882462959217275	1.9866552437677116	2.619473885576722	
s91	2.206983177178598	1.294178951634199	3.2380700553688304	
s92	1.3577908117292	1.2764003377826012	3.85455360587325	
s93	1.3810463870717713	2.018529768777816	4.402400122768724	
s94	2.159534752203895	2.0423427134097216	3.900646823017882	
s95	2.2374623602770973	1.2583423624603858	4.461374555618276	
s96	1.431392769774336	2.6801230753940204	5.042396230687584	
s97	1.447841730892245	3.3628487047596587	0.5930800537535382	
s98	2.1632083529068704	3.3181573466983325	4.96726263852734	
s99	2.210698983467293	2.5863004799069222	0.6001654256801787	
s100	1.3612349194112492	2.579893028151707	1.274281717874825	
s101	1.4643047253221884	3.3032663662272763	1.9176651067999089	
s102	2.156385884414114	3.379907775016738	1.2736257575141225	
s103	2.174259381281503	2.5977927063137813	1.9063081671758373	
s104	1.4009641406592848	2.6405177008546694	2.6044599933888732	
s105	1.5341419948212338	3.4060411870458176	3.358005692876668	
s106	2.179962896302371	3.4460480320171323	2.566849772295064	
s107	2.191603705176605	2.7143530441013977	3.3041111623287294	
s0	4.469143090576803	5.097977467640185	5.098362551142225	
s1	4.538496867982037	0.6374239662262705	0.5948327370332143	
s2	0.4539297063915672	0.6175402939262119	5.114209762044551	
s3	0.42890215706463175	5.09107337563001	0.5635567786997424	
s4	4.477181458361811	0.025042844064205885	1.2624988381655617	
s5	4.345256322949264	0.587875801887765	1.9737160592824279	
s6	0.4185157437401962	0.5929479948274117	1.2894557693851252	
s7	0.5338723126526755	5.0551767874208355	1.9304991310784825	
s8	4.669968433729916	5.080977295706919	2.591050890261215	
s9	4.278495917613597	0.5738980624146484	3.196093456883481	
s10	0.4143072905702144	0.569671067605503	2.5680440435812795	
s11	0.4765716850840874	5.05866472836223	3.2418175057351704	
s12	4.577209184190544	5.126709496803632	3.8591578930788715	
s13	4.438196425432384	0.6481045583057864	4.502019541701032	
s14	0.3669818812844406	0.5545163037095917	3.887929910142599	
s15	0.5669811894626052	5.079864486676092	4.536769793972978	
s16	4.37711996213773	1.3313925842225005	5.122370846838383	
s17	4.441272425793915	1.9406934818061623	0.6592138260939396	
s18	0.4304675220588024	1.9830126706401243	0.00624444416000563	
s19	0.3987610319884047	1.27362007014331	0.6130394315736898	
s20	4.492463802167478	1.2223221637847472	1.2886939736868406	
s21	4.428714732987739	1.9243125435683182	1.9046620054533934	
s22	0.3786900664037357	1.9733482161886347	1.2769852223004314	
s23	0.359612587413905	1.2993745989352756	1.9477785766779572	
s24	4.436766856435291	1.2672637964875175	2.598813230527399	
s25	4.432446882464163	1.9472517731556689	3.212985724034659	
s26	0.3848045328818245	1.9877271803731875	2.660855497010937	
s27	0.37385767416604704	1.2172387866499104	3.2372664503068247	
s28	4.458931246515216	1.2421897360317704	3.8054880005393383	
s29	4.499029467502751	1.9402980766905888	4.451249678312884	
s30	0.40451177008018585	1.9514420733428322	3.770870966406263	
s31	0.44737616463472074	1.279664711737344	4.500829329149828	
s32	4.48929499481298	2.5433380347469265	5.12287796744667	
s33	4.578612348164262	3.194771311165124	0.6193259648057836	
s34	0.5411866988377203	3.2737520355401784	4.994899840522993	
s35	0.47203355404856295	2.673533551883087	0.6197574910071075	
s36	4.409132841952797	2.6047824581461234	1.2897090805734361	
s37	4.598789005644061	3.2166022067212428	1.9275480705253183	
s38	0.45870427239529676	3.2250627974124058	1.348147092573771	
s39	0.4606882853562909	2.5565420916934136	1.954025652257475	
s40	4.482081622051434	2.5618632822930003	2.557771341231945	
s41	4.669002042519285	3.2220902947724674	3.144370896138232	
s42	0.538384052164892	3.275538121294819	2.4781824627874736	
s43	0.5561359583483559	2.6904643444422627	3.2221125520770375	
s44	4.480192242258317	2.6367431642868437	3.8206563453370794	
s45	4.660099263308906	3.206837182509337	4.514234417042827	
s46	0.8174644653574655	3.2658126555338773	3.9679498691529247	
s47	0.4954913330251622	2.5641372629787065	4.4190679178077845	
s48	4.473113030955762	3.8615340648298164	5.126480390319121	
s49	4.621893683773377	4.515500488917058	0.6418510595004955	
s50	0.7111155187685388	4.387730193019524	5.126570002770116	
s51	0.5581614169672088	3.776141776943393	0.6311869933461747	
s52	4.538588702266653	3.8299192057838636	1.2625032260576625	
s53	4.620337388981163	4.494710528765705	1.8858550778414738	
s54	0.7749783753246116	4.500193678951507	1.203847995182342	
s55	0.874325454438507	3.8669044577481677	1.885614139016145	
s56	4.50475813380028	3.8885687642414584	2.5573558329012074	
s57	4.395048752987468	4.464319251489397	3.262938819224232	
s58	0.6738197236268099	4.447381280576058	2.5753167120778664	
s59	0.7438229955699704	3.820969636738453	3.2050675307175265	
s60	4.723451626039454	3.8088130080064766	3.840201291341293	
s61	4.650481667739148	4.467915806190423	4.491387546635281	
s62	0.7197004023786541	4.427268354466001	3.8991207532228227	
s63	1.439098934528525	3.8717126351466717	4.563940405732826	
s64	1.7781064742533321	4.817266062426818	0.0501214419010119	
s65	1.550865517845299	0.5190031076847942	0.5881811849697132	
s66	2.598175133372278	0.38685568474674625	5.120524204505117	
s67	2.608060123004546	4.6583787869495845	0.7537843142086015	
s68	1.7576544996079237	4.893683478852012	1.294158527205722	
s69	1.5682266665692093	0.5221624367649156	1.931243959815606	
s70	2.646342455913445	0.4276079946675552	1.419816297107421	
s71	2.5540146528349976	4.530799399129379	1.9726846399065125	
s72	1.6972503821720955	4.896524131138047	2.5753839933501355	
s73	1.5287190892115572	0.46171477081912443	3.255995178234378	
s74	2.5571733309073226	0.43418645470525075	2.614577946942744	
s75	2.5742359302478772	4.564782106605955	3.222425784879597	
s76	1.7457259218403116	4.813334829248014	3.8691376934720974	
s77	1.5929396523336878	0.3991471374762303	4.507478890275915	
s78	2.5849143280764917	0.35961123612348744	3.7556358332189124	
s79	2.6387866238183464	4.644600125132517	4.4996870686440165	
s80	1.5575707617226597	1.286709305459044	4.998575125839667	
s81	1.5698362855396002	2.037026036674515	0.5595043751215646	
s82	2.648592797628514	2.107928587747548	4.945760759855154	
s83	2.544412062301508	1.2407145363248757	0.5440688041034921	
s84	1.5967852660059074	1.2832659236810937	1.2813907252889505	
s85	1.523493984426371	2.010621304809865	1.9684224003907789	
s86	2.6834143756856603	1.988591286876705	1.2905484371538871	
s87	2.567860603057667	1.3227376174528818	2.041059342018237	
s88	1.4940752744195884	1.2973955797194432	2.6614857952107296	
s89	1.603467084131062	2.100849303528746	3.3940462765246497	
s90	2.614010698217558	2.145967716965344	2.7279535719165335	
s91	2.6288547292766453	1.3064450118461006	3.300395760299383	
s92	1.5498726426379719	1.1983927949861062	3.9026944182785774	
s93	1.5122486602176737	2.106036941266742	4.335668291733252	
s94	2.648632371358711	2.177056028120283	4.019977521137923	
s95	2.655796770450722	1.2139438324680591	4.406235623565425	
s96	1.6992290582928342	2.8078608344552682	5.015387563674754	
s97	1.8122742655195245	3.545737118100828	0.5229015491131717	
s98	2.5055027220536252	3.54442301125395	4.736822197721838	
s99	2.6304269917260945	2.7799601737145774	0.637706498156876	
s100	1.5195316817020172	2.7576553175835152	1.248467181846573	
s101	1.786516055542114	3.456327263546551	1.9033662266666291	
s102	2.6240798332759234	3.673119713491853	1.2604326277673847	
s103	2.603155174619844	2.797675752908278	1.9066797805966798	
s104	1.660188306960654	2.7811564820146932	2.6598370627187657	
s105	1.9355291794626903	3.680251447318937	3.4982936890937877	
s106	2.5453477498047667	3.7652382665272133	2.572879587609517	
s107	2.621496839676123	2.9873012403288155	3.351545400437082	
s0	3.963461885081809	5.0534415700614845	5.122270052404887	
s1	4.294093203533051	0.6852809567395277	0.48245370836540225	
s2	0.3185869744289403	0.7397137662078993	5.1038083813090935	
s3	0.15441159756124895	5.030389767454867	0.5649963751480611	
s4	4.022167942270523	0.09450695718712122	1.272479742294489	
s5	3.7612036404737283	0.5766642834600915	2.074668791812502	
s6	0.2356969177349627	0.6284497524679401	1.2718507019935006	
s7	0.413752650054354	5.062777386217723	1.8544781461157336	
s8	4.543487319270457	5.078037038909881	2.6893821980767805	
s9	3.6069660364589877	0.46782740248136195	3.1642892911104767	
s10	0.28304250204233844	0.5626664719421194	2.5294912984162856	
s11	0.29896735104422584	5.008610537575182	3.3001398362075967	
s12	4.37661961845158	0.05564071087058083	3.802370633984947	
s13	4.006885763877294	0.6508638319026261	4.508122676210661	
s14	0.08947727382060437	0.5952690192874505	3.95370554605201	
s15	0.486943741705308	5.082351202598831	4.5635010859588725	
s16	3.841574766071124	1.4004924875078704	5.104378768048175	
s17	4.0724416853350265	1.9094542716390162	0.7749696550433901	
s18	0.24942300008693233	1.9365201518591977	0.05047866612671351	
s19	0.21069794143102194	1.2786808772382183	0.6868466493843416	
s20	4.147688171570416	1.1300565979674342	1.303331440399219	
s21	3.992482848841574	1.8460098368921678	1.8582487704551036	
s22	0.16554324497860015	1.9865063505001699	1.191134843416038	
s23	0.1584385380208103	1.3237138036244513	1.947569509163229	
s24	4.081649975694924	1.2768502757098497	2.6307943301421894	
s25	3.9809249346377347	1.954454142568264	3.2497495590215713	
s26	0.15432055532059985	1.85882341524672	2.7440687625325744	
s27	0.20880284649090358	1.1214682998247743	3.2337208996674907	
s28	4.109512974354034	1.1633057372133706	3.7324031159897393	
s29	4.189948315446165	1.8788787525493813	4.32766814468266	
s30	0.18461149578078578	1.9305095774126384	3.6438694011093884	
s31	0.34445127951545285	1.3966477075395187	4.379469329387742	
s32	4.040407228069476	2.482008734466084	5.087609611274167	
s33	4.398925347995628	3.1793351846952373	0.5789220643922217	
s34	0.40909457592076626	3.4241143331307344	4.834973038413275	
s35	0.3699450177131198	2.7393683503065884	0.5914045315537186	
s36	3.8710095852025694	2.672106573631042	1.3073167384712843	
s37	4.430387103806424	3.2339346816003904	1.9703887085832015	
s38	0.19139156259004	3.2518837504797253	1.5182007965663882	
s39	0.36944391999254694	2.3998458064687274	2.020959526807454	
s40	4.033415601129957	2.5543458412464495	2.5179520115921665	
s41	4.553801690438708	3.2040407563624025	3.0612581069544356	
s42	0.31328038608918235	3.3568021548780047	2.4197267638240336	
s43	0.4955192887656438	2.8149890018931063	3.2626645161499437	
s44	4.0054537248776905	2.7011229061626127	3.819992744277663	
s45	4.500002398700728	3.177119160576264	4.55295900892756	
s46	1.0141712652875512	3.3485441755566976	4.129478447056659	
s47	0.3051248960313463	2.4811733557027105	4.414246454144574	
s48	3.9340021325006522	3.8846739614223362	0.0010890253282303114	
s49	4.480766928525785	4.527448649838933	0.6560340234384823	
s50	0.7666421003403878	4.311940039580162	5.0623475937357805	
s51	0.37450304226885706	3.7477169038264115	0.6968923253538238	
s52	4.119587548876619	3.841128201855496	1.242598167872017	
s53	4.430623105089122	4.537777062180353	1.8466965245683307	
s54	0.8946587770821807	4.5371491293468384	1.1362824295023544	
s55	1.1177910082558844	3.8719150280238597	1.8371441237012553	
s56	4.0578757541406825	3.965454084669571	2.555900671793596	
s57	3.7989844908864443	4.476596531902481	3.336337793033914	
s58	0.6495964273825907	4.451671013760116	2.5711189878046907	
s59	0.831452774132146	3.6952549154401395	3.211507552939308	
s60	4.620041214368831	3.816559995098538	3.801522368920422	
s61	4.503291953057014	4.470390308114996	4.477283677774189	
s62	0.7574308537816293	4.287843705715752	4.008308146936176	
s63	2.0268022651334126	3.9043587758492087	4.6578794712551135	
s64	2.045001816307534	4.6088525812080645	0.11473346420378619	
s65	1.7208601260348495	0.440928490836317	0.523353250593526	
s66	3.0087169022250175	0.1775478044626346	5.085984852573793	
s67	3.0968286656341832	4.490411589201967	0.6781825450686964	
s68	2.0851457504303155	4.748531056219209	1.2903564869410535	
s69	1.7285480043729329	0.4647337573228312	1.9286103364480127	
s70	3.062892869498564	0.25778137480900176	1.4858135719805023	
s71	2.9727067601128563	4.432835895456258	1.8651905953715053	
s72	1.9583552510241966	4.6769046778522005	2.57486167148796	
s73	1.671924586511034	0.3243357574898441	3.2928267349584313	
s74	2.9554599284627754	0.24403310935707953	2.647014151373489	
s75	3.0652544073111514	4.355959187576395	3.368674273286196	
s76	2.0148618369373934	4.653376383156615	3.8728380786721566	
s77	1.7801170894878533	0.20444959506216673	4.547627219920973	
s78	2.963910760730396	0.13151699846282605	3.685525738137938	
s79	3.152154542469167	4.460463030659267	4.462806914856898	
s80	1.7141469041082327	1.256236588648418	4.896646652170463	
s81	1.7547251903405503	2.1267553787379794	0.5103209918288967	
s82	3.066491153734316	2.244891091297547	5.012536480585656	
s83	2.905949238133412	1.2475959841513236	0.4538949842811545	
s84	1.8020114387562045	1.3054650663572342	1.250893219837794	
s85	1.6769180599740716	2.1269186296396874	1.9910098151764384	
s86	3.138955875438335	2.084702006834535	1.2976996634538318	
s87	2.9396033722428307	1.3080419173122497	2.122166319307919	
s88	1.6177407616723745	1.280745844493863	2.763929527345755	
s89	1.8076363149775472	2.2086131760885404	3.4135468544074064	
s90	3.0515349235607583	2.3234425873487936	2.8243485208997616	
s91	3.0501759706193474	1.311947164661663	3.3674407498571615	
s92	1.7361699032623497	1.1435990514157601	3.946433843308867	
s93	1.609335689332039	2.207864136583584	4.390973255748735	
s94	3.1519850763804156	2.3163971083214165	3.9849863949837534	
s95	3.0693422134050303	1.1415838859237126	4.346864710949987	
s96	1.9802829305315521	2.944188806834992	4.9761070658759445	
s97	2.190878925493687	3.777107542926798	0.5060933086782711	
s98	2.8554424363403315	3.607540348574146	4.529744418741515	
s99	3.0488645465594755	3.0080256499803513	0.6703374763524501	
s100	1.6708033959369895	2.951884896123211	1.192645298864083	
s101	2.138879544584041	3.6593898694175233	1.8945450979321499	
s102	3.1101452954437847	3.769297421005928	1.2824770448587985	
s103	3.038755744742531	3.0240215496391523	1.9212500540135744	
s104	1.918721260056846	2.9610430859325803	2.714278832953743	
s105	2.291671095468793	3.883726464553375	3.6177387909470164	
s106	2.891218425544207	3.780742872526865	2.615792870145674	
s107	3.1059101152744257	3.2602877242519224	3.377303048491793	
s0	4.071258803322221	4.835396182644073	5.114103195797723	
s1	4.145031275257779	0.7312105519557954	0.3334603797236788	
s2	0.2088622808742694	0.7489135061154655	4.999891930297156	
s3	5.119473036074448	4.986720516420379	0.5501107082082388	
s4	4.009401526772757	0.07485161704310443	1.0546364194663242	
s5	3.482366408635544	0.535920015029377	2.232528056462991	
s6	0.029579296613179994	0.5337243344280626	1.3207980875141285	
s7	0.31546885737719493	4.876419406823568	1.7534213010967534	
s8	4.446028214564818	5.124108115260946	2.7749972183013663	
s9	3.5004226525192594	0.4929821661500807	3.117512128005912	
s10	0.1684897710767124	0.46037170397167904	2.4137033475349394	
s11	0.11534517598362767	4.891836917580912	3.3694267908725175	
s12	4.257619300734562	0.23783208588045351	3.769457992764091	
s13	3.833100093087034	0.47676168574800093	4.639090869831257	
s14	4.900562751227704	0.5773134875552307	4.211953412194403	
s15	0.4354084109957322	5.034012165128928	4.549947502887942	
s16	3.5776838950026377	1.5904147277670713	4.911346627898013	
s17	3.896760405293989	1.8676886599362104	0.7812081423177166	
s18	0.04254277720392832	1.9466262366219882	0.04859962602354137	
s19	5.103236666173429	1.2648497848838305	0.6946707075023081	
s20	3.835869335665158	0.9536309309865669	1.3890136375792905	
s21	3.7818443511369164	1.8330443756913621	1.9202066987038793	
s22	5.0232445438660385	2.193978520569359	1.1785758588150648	
s23	5.091898065532804	1.3697563984885355	1.8896062054580334	
s24	3.881709224952759	1.2380976015895822	2.6912627912439406	
s25	3.8112769621947646	2.027993051701254	3.353381984199846	
s26	4.970889737240914	1.8474460202497969	2.691208363931331	
s27	0.07866347588187148	0.9174734763904611	3.2894573284101067	
s28	4.0667754140497525	1.0329634600876207	3.688797940689362	
s29	3.988474218089049	1.8487263543909866	4.221944620852956	
s30	5.023973146253593	2.0831384325669675	3.6177327793446445	
s31	0.3193623252507956	1.5298827310586578	4.300272013014658	
s32	4.106140223088244	2.5276568207765693	5.096327508786428	
s33	4.328590625371363	3.1531191622292507	0.5243546139684304	
s34	0.17436567132345066	3.552204805254501	4.750087849267636	
s35	0.2896881166343163	2.8710337076500765	0.557652629638305	
s36	3.7780610590588832	2.95955548145095	1.310957661537907	
s37	4.3004860579134	3.3146420118179645	2.0059925456089425	
s38	5.08716881174704	3.231776513599113	1.4983312693174389	
s39	0.3628070224350078	2.381529311934177	2.060924467888087	
s40	3.933450674660253	2.605650636899953	2.3365770161569133	
s41	4.486114315072324	3.106644192049215	2.9414434742684508	
s42	0.0899767048585499	3.5087814177872594	2.4976767841867344	
s43	0.4108297594013291	2.8484420187825856	3.329515005949042	
s44	4.093254835691421	3.0694452515140402	3.858917345732158	
s45	4.41923154069197	3.18678635179666	4.6217427184769475	
s46	1.3254576749371592	3.339165027324406	4.25142094155484	
s47	0.14645233507462807	2.571940828773462	4.411855070646176	
s48	3.3777359223628807	3.8535092802286233	5.101625808621177	
s49	4.370938151823215	4.476849309556763	0.6573987652597276	
s50	0.9093616606568105	4.226580752255072	5.06138207007547	
s51	0.17351300766857583	3.7891126943160947	0.7522657834674995	
s52	4.1789512479844655	3.8935255054618865	1.2185483370660644	
s53	4.315084541665923	4.6442200202062125	1.8250011501761016	
s54	1.052214729161131	4.615126756346192	0.986726294808882	
s55	1.389199362036009	3.83234170211316	1.806924074572552	
s56	3.7600696582563047	4.066778956206142	2.517356247842843	
s57	4.135046459148516	4.516400149496776	3.342271848922344	
s58	0.6649456642759278	4.405808339580751	2.583362691924609	